 Gaussian 03, Revision B.04,
 Gaussian 03:  x86-Linux-G03RevB.04 2-Jun-2003

 --------------------------------
 #p hf/STO-3G gfoldprint pop=full
 --------------------------------

 ---------------
 Methane minimal
 ---------------
 Symbolic Z-matrix:
 Charge =  0 Multiplicity = 1

                         Standard orientation:
 ---------------------------------------------------------------------
 Center     Atomic     Atomic              Coordinates (Angstroms)
 Number     Number      Type              X           Y           Z
 ---------------------------------------------------------------------
    1          6             0        0.000000    0.000006    0.000000
    2          1             0        1.003025    0.372620    0.000000
    3          1             0        0.016983   -1.069859    0.000000
    4          1             0       -0.510004    0.348601    0.873658
    5          1             0       -0.510004    0.348601   -0.873658
 ---------------------------------------------------------------------

 SCF Done:  E(RHF) =  -39.7262782646     A.U. after    4 cycles

 The electronic state is 1-A'.
 Alpha  occ. eigenvalues --  -11.02863  -0.91890  -0.52569  -0.52569  -0.52568
 Alpha virt. eigenvalues --    0.73090   0.73091   0.73092   0.78108

 Mulliken atomic charges:
              1
     1  C   -0.277465
     2  H    0.069367
     3  H    0.069365
     4  H    0.069367
     5  H    0.069367
 Sum of Mulliken charges=   0.00000

 Dipole moment (field-independent basis, Debye):
    X=     0.0000    Y=     0.0000    Z=     0.0000  Tot=     0.0000
 Quadrupole moment (field-independent basis, Debye-Ang):
   XX=    -7.8391   YY=    -7.8392   ZZ=    -7.8391
   XY=     0.0000   XZ=     0.0000   YZ=     0.0000

 Normal termination of Gaussian 03 at Sun Mar 22 15:23:27 2009.
